Methane molecule - openWFN example                                      
FOpt      RHF                                                         3-21G               
Number of atoms                            I                5
Info1-9                                    I   N=           9
          14          14           0           0           0         110
           2           1           2
Full Title                                 C   N=           3
Methane molecule - openWFN example  
Route                                      C   N=           2
# HF/3-21G Opt          
Charge                                     I                0
Multiplicity                               I                1
Number of electrons                        I               10
Number of alpha electrons                  I                5
Number of beta electrons                   I                5
Number of basis functions                  I               17
Number of independent functions            I               17
Number of point charges in /Mol/           I                0
Number of translation vectors              I                0
Atomic numbers                             I   N=           5
           6           1           1           1           1
Nuclear charges                            R   N=           5
  6.00000000E+00  1.00000000E+00  1.00000000E+00  1.00000000E+00  1.00000000E+00
Current cartesian coordinates              R   N=          15
  2.22044605E-17 -2.22044605E-17  0.00000000E+00  1.18082046E+00  1.18082046E+00
  1.18082046E+00 -1.18082046E+00 -1.18082046E+00  1.18082046E+00 -1.18082046E+00
  1.18082046E+00 -1.18082046E+00  1.18082046E+00 -1.18082046E+00 -1.18082046E+00
Number of symbols in /Mol/                 I                0
Force Field                                I                0
Atom Types                                 C   N=           5
                                                            
Int Atom Types                             I   N=           5
           0           0           0           0           0
MM charges                                 R   N=           5
  0.00000000E+00  0.00000000E+00  0.00000000E+00  0.00000000E+00  0.00000000E+00
Integer atomic weights                     I   N=           5
          12           1           1           1           1
Real atomic weights                        R   N=           5
  1.20000000E+01  1.00782504E+00  1.00782504E+00  1.00782504E+00  1.00782504E+00
Atom fragment info                         I   N=           5
           0           0           0           0           0
Atom residue num                           I   N=           5
           0           0           0           0           0
Nuclear spins                              I   N=           5
           0           1           1           1           1
Nuclear ZEff                               R   N=           5
 -3.60000000E+00 -1.00000000E+00 -1.00000000E+00 -1.00000000E+00 -1.00000000E+00
Nuclear ZNuc                               R   N=           5
  6.00000000E+00  1.00000000E+00  1.00000000E+00  1.00000000E+00  1.00000000E+00
Nuclear QMom                               R   N=           5
  0.00000000E+00  0.00000000E+00  0.00000000E+00  0.00000000E+00  0.00000000E+00
Nuclear GFac                               R   N=           5
  0.00000000E+00  2.79284600E+00  2.79284600E+00  2.79284600E+00  2.79284600E+00
MicOpt                                     I   N=           5
          -1          -1          -1          -1          -1
Number of residues                         I                0
Number of secondary structures             I                0
Redundant internal dimensions              I   N=           4
          14           4           6           4
Redundant internal coordinate indices      I   N=          56
           1           2           0           0           1           3
           0           0           1           4           0           0
           1           5           0           0           2           1
           3           0           2           1           4           0
           2           1           5           0           3           1
           4           0           3           1           5           0
           4           1           5           0           2           1
           4           3           2           1           5           3
           2           1           5           4           3           1
           5           4
Redundant internal coordinates             R   N=          14
  2.04524103E+00  2.04524103E+00  2.04524103E+00  2.04524103E+00  1.91063324E+00
  1.91063324E+00  1.91063324E+00  1.91063324E+00  1.91063324E+00  1.91063324E+00
 -2.09439510E+00  2.09439510E+00 -2.09439510E+00  2.09439510E+00
ZRed-IntVec                                I   N=          14
           0           0           0           0           0           0
           0           0           0           0           0           0
           0           0
ZRed-FPVec                                 R   N=          14
  0.00000000E+00  0.00000000E+00  0.00000000E+00  0.00000000E+00  0.00000000E+00
  0.00000000E+00  0.00000000E+00  0.00000000E+00  0.00000000E+00  0.00000000E+00
  0.00000000E+00  0.00000000E+00  0.00000000E+00  0.00000000E+00
ZRed-Constraint1                           R   N=          14
  2.05916717E+00  2.05916717E+00  2.05916717E+00  2.05916717E+00  1.91063324E+00
  1.91063324E+00  1.91063324E+00  1.91063324E+00  1.91063324E+00  1.91063324E+00
 -2.09439510E+00  2.09439510E+00 -2.09439510E+00  2.09439510E+00
ZRed-Constraint2                           R   N=          14
  0.00000000E+00  0.00000000E+00  0.00000000E+00  0.00000000E+00  0.00000000E+00
  0.00000000E+00  0.00000000E+00  0.00000000E+00  0.00000000E+00  0.00000000E+00
  0.00000000E+00  0.00000000E+00  0.00000000E+00  0.00000000E+00
SymInf integers                            I   N=          26
           4           4           1           1           1           1
          -1          -1          -1           1          -1          -1
          -1           1           0           0           0           0
           0           0           0           0           0           0
           0           0
RotTr to input orientation                 R   N=          12
  1.00000000E+00 -5.78727313E-16  1.34607388E-15  5.25916560E-16  1.00000000E+00
  1.34607388E-15 -1.34607388E-15 -1.34607388E-15  1.00000000E+00  2.22044605E-17
 -2.22044605E-17  0.00000000E+00
Number of contracted shells                I               11
Number of primitive shells                 I               18
Pure/Cartesian d shells                    I                1
Pure/Cartesian f shells                    I                0
Highest angular momentum                   I                1
Largest degree of contraction              I                3
Shell types                                I   N=          11
           0          -1          -1           0           0           0
           0           0           0           0           0
Number of primitives per shell             I   N=          11
           3           2           1           2           1           2
           1           2           1           2           1
Shell to atom map                          I   N=          11
           1           1           1           2           2           3
           3           4           4           5           5
Primitive exponents                        R   N=          18
  1.72256000E+02  2.59109000E+01  5.53335000E+00  3.66498000E+00  7.70545000E-01
  1.95857000E-01  5.44717800E+00  8.24547240E-01  1.83191580E-01  5.44717800E+00
  8.24547240E-01  1.83191580E-01  5.44717800E+00  8.24547240E-01  1.83191580E-01
  5.44717800E+00  8.24547240E-01  1.83191580E-01
Contraction coefficients                   R   N=          18
  6.17669074E-02  3.58794043E-01  7.00713084E-01 -3.95895162E-01  1.21583436E+00
  1.00000000E+00  1.56284979E-01  9.04690877E-01  1.00000000E+00  1.56284979E-01
  9.04690877E-01  1.00000000E+00  1.56284979E-01  9.04690877E-01  1.00000000E+00
  1.56284979E-01  9.04690877E-01  1.00000000E+00
P(S=P) Contraction coefficients            R   N=          18
  0.00000000E+00  0.00000000E+00  0.00000000E+00  2.36459947E-01  8.60618806E-01
  1.00000000E+00  0.00000000E+00  0.00000000E+00  0.00000000E+00  0.00000000E+00
  0.00000000E+00  0.00000000E+00  0.00000000E+00  0.00000000E+00  0.00000000E+00
  0.00000000E+00  0.00000000E+00  0.00000000E+00
Coordinates of each shell                  R   N=          33
  0.00000000E+00  0.00000000E+00  0.00000000E+00  0.00000000E+00  0.00000000E+00
  0.00000000E+00  0.00000000E+00  0.00000000E+00  0.00000000E+00  1.18082046E+00
  1.18082046E+00  1.18082046E+00  1.18082046E+00  1.18082046E+00  1.18082046E+00
 -1.18082046E+00 -1.18082046E+00  1.18082046E+00 -1.18082046E+00 -1.18082046E+00
  1.18082046E+00 -1.18082046E+00  1.18082046E+00 -1.18082046E+00 -1.18082046E+00
  1.18082046E+00 -1.18082046E+00  1.18082046E+00 -1.18082046E+00 -1.18082046E+00
  1.18082046E+00 -1.18082046E+00 -1.18082046E+00
Num ILSW                                   I              100
ILSW                                       I   N=         100
           0           1           0           1           2           0
           0           0           0           0           0          -1
           5           0           0           0           2           0
           0           0           1           0           1           0
           1           0           0           0           0           0
           0           0      100000           0          -1           0
           0           0           0           0           0           0
           0           0           0           1           0           0
           0 -2000000000           1           0           0           0
           0           0           4          52           0           0
           0           0           0           0           0           0
           0           0           0           0           0           1
           0           0           0           0           0           0
           0           0           0           0           0           0
           0           0           0           0           0           0
           0           0           0           0           0           0
           0           0           0           0
Num RLSW                                   I               52
RLSW                                       R   N=          52
  1.00000000E+00  1.00000000E+00  1.00000000E+00  1.00000000E+00  1.00000000E+00
  0.00000000E+00  0.00000000E+00  1.00000000E+00  0.00000000E+00  0.00000000E+00
  0.00000000E+00  0.00000000E+00  1.00000000E+00  0.00000000E+00  0.00000000E+00
  0.00000000E+00  0.00000000E+00  1.00000000E+00  0.00000000E+00  0.00000000E+00
  0.00000000E+00  0.00000000E+00  1.00000000E+00  0.00000000E+00  0.00000000E+00
  0.00000000E+00  0.00000000E+00  1.00000000E+00  0.00000000E+00  0.00000000E+00
  0.00000000E+00  0.00000000E+00  1.00000000E+00  0.00000000E+00  0.00000000E+00
  0.00000000E+00  0.00000000E+00  0.00000000E+00  1.00000000E+00  1.00000000E+00
  0.00000000E+00  1.00000000E+00  0.00000000E+00  0.00000000E+00  0.00000000E+00
  0.00000000E+00  0.00000000E+00  0.00000000E+00  0.00000000E+00  0.00000000E+00
  0.00000000E+00  0.00000000E+00
MxBond                                     I                4
NBond                                      I   N=           5
           4           1           1           1           1
IBond                                      I   N=          20
           2           3           4           5           1           0
           0           0           1           0           0           0
           1           0           0           0           1           0
           0           0
RBond                                      R   N=          20
  1.00000000E+00  1.00000000E+00  1.00000000E+00  1.00000000E+00  1.00000000E+00
  0.00000000E+00  0.00000000E+00  0.00000000E+00  1.00000000E+00  0.00000000E+00
  0.00000000E+00  0.00000000E+00  1.00000000E+00  0.00000000E+00  0.00000000E+00
  0.00000000E+00  1.00000000E+00  0.00000000E+00  0.00000000E+00  0.00000000E+00
Virial Ratio                               R      2.002143186139047E+00
SCF Energy                                 R     -3.997687654112752E+01
Total Energy                               R     -3.997687654112752E+01
RMS Force                                  R      2.296700830498160E-04
RMS Density                                R      3.822631469284549E-09
Job Status                                 I                1
Nuclear derivative order                   I                1
External E-field                           R   N=          35
  0.00000000E+00  0.00000000E+00  0.00000000E+00  0.00000000E+00  0.00000000E+00
  0.00000000E+00  0.00000000E+00  0.00000000E+00  0.00000000E+00  0.00000000E+00
  0.00000000E+00  0.00000000E+00  0.00000000E+00  0.00000000E+00  0.00000000E+00
  0.00000000E+00  0.00000000E+00  0.00000000E+00  0.00000000E+00  0.00000000E+00
  0.00000000E+00  0.00000000E+00  0.00000000E+00  0.00000000E+00  0.00000000E+00
  0.00000000E+00  0.00000000E+00  0.00000000E+00  0.00000000E+00  0.00000000E+00
  0.00000000E+00  0.00000000E+00  0.00000000E+00  0.00000000E+00  0.00000000E+00
IOpCl                                      I                0
IROHF                                      I                0
Alpha Orbital Energies                     R   N=          17
 -1.11441687E+01 -9.46132010E-01 -5.44999979E-01 -5.44999979E-01 -5.44999979E-01
  2.96837278E-01  3.52768884E-01  3.52768884E-01  3.52768884E-01  9.22729610E-01
  9.22729610E-01  9.22729610E-01  1.33424024E+00  1.35956401E+00  1.35956401E+00
  1.35956401E+00  1.95611416E+00
Alpha MO coefficients                      R   N=         289
  9.87092154E-01  9.93708307E-02  0.00000000E+00  0.00000000E+00  0.00000000E+00
 -7.23605522E-02  0.00000000E+00  0.00000000E+00  0.00000000E+00 -5.61920268E-04
  1.41231895E-02 -5.61920268E-04  1.41231895E-02 -5.61920268E-04  1.41231895E-02
 -5.61920268E-04  1.41231895E-02 -2.08930491E-01  2.02480143E-01  0.00000000E+00
  0.00000000E+00  0.00000000E+00  6.13350590E-01  0.00000000E+00  0.00000000E+00
  0.00000000E+00  1.23033501E-01  2.17246916E-02  1.23033501E-01  2.17246916E-02
  1.23033501E-01  2.17246916E-02  1.23033501E-01  2.17246916E-02  0.00000000E+00
  0.00000000E+00  0.00000000E+00  3.74564799E-01  0.00000000E+00  0.00000000E+00
  0.00000000E+00  3.09938763E-01  0.00000000E+00  1.59281672E-01  1.48953618E-01
 -1.59281672E-01 -1.48953618E-01  1.59281672E-01  1.48953618E-01 -1.59281672E-01
 -1.48953618E-01  0.00000000E+00  0.00000000E+00  3.74564799E-01  0.00000000E+00
  0.00000000E+00  0.00000000E+00  3.09938763E-01  0.00000000E+00  0.00000000E+00
  1.59281672E-01  1.48953618E-01 -1.59281672E-01 -1.48953618E-01 -1.59281672E-01
 -1.48953618E-01  1.59281672E-01  1.48953618E-01  0.00000000E+00  0.00000000E+00
  0.00000000E+00  0.00000000E+00  3.74564799E-01  0.00000000E+00  0.00000000E+00
  0.00000000E+00  3.09938763E-01  1.59281672E-01  1.48953618E-01  1.59281672E-01
  1.48953618E-01 -1.59281672E-01 -1.48953618E-01 -1.59281672E-01 -1.48953618E-01
 -1.79020832E-01  4.15678042E-02  0.00000000E+00  0.00000000E+00  0.00000000E+00
  2.53421142E+00  0.00000000E+00  0.00000000E+00  0.00000000E+00  5.34019095E-03
 -9.56299269E-01  5.34019095E-03 -9.56299269E-01  5.34019095E-03 -9.56299269E-01
  5.34019095E-03 -9.56299269E-01  0.00000000E+00  0.00000000E+00  0.00000000E+00
  0.00000000E+00  2.68364621E-01  0.00000000E+00  0.00000000E+00  0.00000000E+00
  1.43357145E+00 -4.78186590E-02 -1.04789748E+00 -4.78186590E-02 -1.04789748E+00
  4.78186590E-02  1.04789748E+00  4.78186590E-02  1.04789748E+00  0.00000000E+00
  0.00000000E+00  2.68364621E-01  0.00000000E+00  0.00000000E+00  0.00000000E+00
  1.43357145E+00  0.00000000E+00  0.00000000E+00 -4.78186590E-02 -1.04789748E+00
  4.78186590E-02  1.04789748E+00  4.78186590E-02  1.04789748E+00 -4.78186590E-02
 -1.04789748E+00  0.00000000E+00  0.00000000E+00  0.00000000E+00  2.68364621E-01
  0.00000000E+00  0.00000000E+00  0.00000000E+00  1.43357145E+00  0.00000000E+00
 -4.78186590E-02 -1.04789748E+00  4.78186590E-02  1.04789748E+00 -4.78186590E-02
 -1.04789748E+00  4.78186590E-02  1.04789748E+00  0.00000000E+00  0.00000000E+00
  0.00000000E+00  0.00000000E+00 -7.48426341E-01  0.00000000E+00  0.00000000E+00
  0.00000000E+00  1.25398603E+00 -3.76722343E-01  8.81746176E-03 -3.76722343E-01
  8.81746176E-03  3.76722343E-01 -8.81746176E-03  3.76722343E-01 -8.81746176E-03
  0.00000000E+00  0.00000000E+00 -7.48426341E-01  0.00000000E+00  0.00000000E+00
  0.00000000E+00  1.25398603E+00  0.00000000E+00  0.00000000E+00 -3.76722343E-01
  8.81746176E-03  3.76722343E-01 -8.81746176E-03  3.76722343E-01 -8.81746176E-03
 -3.76722343E-01  8.81746176E-03  0.00000000E+00  0.00000000E+00  0.00000000E+00
 -7.48426341E-01  0.00000000E+00  0.00000000E+00  0.00000000E+00  1.25398603E+00
  0.00000000E+00 -3.76722343E-01  8.81746176E-03  3.76722343E-01 -8.81746176E-03
 -3.76722343E-01  8.81746176E-03  3.76722343E-01 -8.81746176E-03  1.30090320E-01
 -1.37397057E-01  0.00000000E+00  0.00000000E+00  0.00000000E+00 -3.22731628E-01
  0.00000000E+00  0.00000000E+00  0.00000000E+00  6.71519567E-01 -2.47127714E-01
  6.71519567E-01 -2.47127714E-01  6.71519567E-01 -2.47127714E-01  6.71519567E-01
 -2.47127714E-01  0.00000000E+00  0.00000000E+00  0.00000000E+00  0.00000000E+00
 -8.63284532E-01  0.00000000E+00  0.00000000E+00  0.00000000E+00  9.81870104E-01
  5.40074301E-01 -8.16708156E-01  5.40074301E-01 -8.16708156E-01 -5.40074301E-01
  8.16708156E-01 -5.40074301E-01  8.16708156E-01  0.00000000E+00  0.00000000E+00
 -8.63284532E-01  0.00000000E+00  0.00000000E+00  0.00000000E+00  9.81870104E-01
  0.00000000E+00  0.00000000E+00  5.40074301E-01 -8.16708156E-01 -5.40074301E-01
  8.16708156E-01 -5.40074301E-01  8.16708156E-01  5.40074301E-01 -8.16708156E-01
  0.00000000E+00  0.00000000E+00  0.00000000E+00 -8.63284532E-01  0.00000000E+00
  0.00000000E+00  0.00000000E+00  9.81870104E-01  0.00000000E+00  5.40074301E-01
 -8.16708156E-01 -5.40074301E-01  8.16708156E-01  5.40074301E-01 -8.16708156E-01
 -5.40074301E-01  8.16708156E-01 -1.64074426E-02 -2.00355906E+00  0.00000000E+00
  0.00000000E+00  0.00000000E+00  3.92975948E+00  0.00000000E+00  0.00000000E+00
  0.00000000E+00 -1.40788253E-01 -7.77600897E-01 -1.40788253E-01 -7.77600897E-01
 -1.40788253E-01 -7.77600897E-01 -1.40788253E-01 -7.77600897E-01
Orthonormal basis                          R   N=         289
  4.64737104E-02  1.79574212E-01  0.00000000E+00  0.00000000E+00  0.00000000E+00
  2.42018847E-01  0.00000000E+00  0.00000000E+00  0.00000000E+00  9.64430972E-02
  1.71031187E-01  9.64430972E-02  1.71031187E-01  9.64430972E-02  1.71031187E-01
  9.64430972E-02  1.71031187E-01  9.35210194E-01  2.12366415E-01  0.00000000E+00
  0.00000000E+00  0.00000000E+00  2.62566991E-02  0.00000000E+00  0.00000000E+00
  0.00000000E+00 -1.06651689E-01 -6.84225477E-02 -1.06651689E-01 -6.84225477E-02
 -1.06651689E-01 -6.84225477E-02 -1.06651689E-01 -6.84225477E-02 -4.08300364E-01
  9.97488419E-01  0.00000000E+00  0.00000000E+00  0.00000000E+00  1.81019637E-01
  0.00000000E+00  0.00000000E+00  0.00000000E+00 -3.07282551E-01 -1.24855889E-01
 -3.07282551E-01 -1.24855889E-01 -3.07282551E-01 -1.24855889E-01 -3.07282551E-01
 -1.24855889E-01  2.44256191E-02  5.62569881E-01  0.00000000E+00  0.00000000E+00
  0.00000000E+00 -1.65855323E-01  0.00000000E+00  0.00000000E+00  0.00000000E+00
  5.97814922E-01 -4.27756149E-01  5.97814922E-01 -4.27756149E-01  5.97814922E-01
 -4.27756149E-01  5.97814922E-01 -4.27756149E-01 -1.52185129E-01 -1.64222809E+00
  0.00000000E+00  0.00000000E+00  0.00000000E+00  4.71500680E+00  0.00000000E+00
  0.00000000E+00  0.00000000E+00 -1.15951865E-01 -1.16121374E+00 -1.15951865E-01
 -1.16121374E+00 -1.15951865E-01 -1.16121374E+00 -1.15951865E-01 -1.16121374E+00
  0.00000000E+00  0.00000000E+00  0.00000000E+00  0.00000000E+00  2.79364584E-01
  0.00000000E+00  0.00000000E+00  0.00000000E+00  3.80436229E-01  1.65578718E-01
  1.43754476E-01  1.65578718E-01  1.43754476E-01 -1.65578718E-01 -1.43754476E-01
 -1.65578718E-01 -1.43754476E-01  0.00000000E+00  0.00000000E+00  0.00000000E+00
  0.00000000E+00  1.01830136E+00  0.00000000E+00  0.00000000E+00  0.00000000E+00
 -5.48732010E-02 -2.50428716E-01 -1.69975439E-01 -2.50428716E-01 -1.69975439E-01
  2.50428716E-01  1.69975439E-01  2.50428716E-01  1.69975439E-01  0.00000000E+00
  0.00000000E+00  0.00000000E+00  0.00000000E+00  3.39715248E-01  0.00000000E+00
  0.00000000E+00  0.00000000E+00 -8.46806101E-01  5.65879204E-01 -2.56581406E-01
  5.65879204E-01 -2.56581406E-01 -5.65879204E-01  2.56581406E-01 -5.65879204E-01
  2.56581406E-01  0.00000000E+00  0.00000000E+00  0.00000000E+00  0.00000000E+00
  5.36033431E-01  0.00000000E+00  0.00000000E+00  0.00000000E+00 -1.95522777E+00
 -2.25626065E-01  1.29304882E+00 -2.25626065E-01  1.29304882E+00  2.25626065E-01
 -1.29304882E+00  2.25626065E-01 -1.29304882E+00  0.00000000E+00  0.00000000E+00
  0.00000000E+00  2.79364584E-01  0.00000000E+00  0.00000000E+00  0.00000000E+00
  3.80436229E-01  0.00000000E+00  1.65578718E-01  1.43754476E-01 -1.65578718E-01
 -1.43754476E-01  1.65578718E-01  1.43754476E-01 -1.65578718E-01 -1.43754476E-01
  0.00000000E+00  0.00000000E+00  0.00000000E+00  1.01830136E+00  0.00000000E+00
  0.00000000E+00  0.00000000E+00 -5.48732010E-02  0.00000000E+00 -2.50428716E-01
 -1.69975439E-01  2.50428716E-01  1.69975439E-01 -2.50428716E-01 -1.69975439E-01
  2.50428716E-01  1.69975439E-01  0.00000000E+00  0.00000000E+00  0.00000000E+00
  3.39715248E-01  0.00000000E+00  0.00000000E+00  0.00000000E+00 -8.46806101E-01
  0.00000000E+00  5.65879204E-01 -2.56581406E-01 -5.65879204E-01  2.56581406E-01
  5.65879204E-01 -2.56581406E-01 -5.65879204E-01  2.56581406E-01  0.00000000E+00
  0.00000000E+00  0.00000000E+00  5.36033431E-01  0.00000000E+00  0.00000000E+00
  0.00000000E+00 -1.95522777E+00  0.00000000E+00 -2.25626065E-01  1.29304882E+00
  2.25626065E-01 -1.29304882E+00 -2.25626065E-01  1.29304882E+00  2.25626065E-01
 -1.29304882E+00  0.00000000E+00  0.00000000E+00  2.79364584E-01  0.00000000E+00
  0.00000000E+00  0.00000000E+00  3.80436229E-01  0.00000000E+00  0.00000000E+00
  1.65578718E-01  1.43754476E-01 -1.65578718E-01 -1.43754476E-01 -1.65578718E-01
 -1.43754476E-01  1.65578718E-01  1.43754476E-01  0.00000000E+00  0.00000000E+00
  1.01830136E+00  0.00000000E+00  0.00000000E+00  0.00000000E+00 -5.48732010E-02
  0.00000000E+00  0.00000000E+00 -2.50428716E-01 -1.69975439E-01  2.50428716E-01
  1.69975439E-01  2.50428716E-01  1.69975439E-01 -2.50428716E-01 -1.69975439E-01
  0.00000000E+00  0.00000000E+00  3.39715248E-01  0.00000000E+00  0.00000000E+00
  0.00000000E+00 -8.46806101E-01  0.00000000E+00  0.00000000E+00  5.65879204E-01
 -2.56581406E-01 -5.65879204E-01  2.56581406E-01 -5.65879204E-01  2.56581406E-01
  5.65879204E-01 -2.56581406E-01  0.00000000E+00  0.00000000E+00  5.36033431E-01
  0.00000000E+00  0.00000000E+00  0.00000000E+00 -1.95522777E+00  0.00000000E+00
  0.00000000E+00 -2.25626065E-01  1.29304882E+00  2.25626065E-01 -1.29304882E+00
  2.25626065E-01 -1.29304882E+00 -2.25626065E-01  1.29304882E+00
Total SCF Density                          R   N=         153
  2.03600574E+00  1.11567783E-01  1.01745541E-01  0.00000000E+00  0.00000000E+00
  2.80597577E-01  0.00000000E+00  0.00000000E+00  1.97642150E-17  2.80597577E-01
  0.00000000E+00  0.00000000E+00  5.12243754E-32  6.80763305E-33  2.80597577E-01
 -3.99148347E-01  2.34001574E-01  0.00000000E+00  0.00000000E+00  0.00000000E+00
  7.62869992E-01  0.00000000E+00  0.00000000E+00  2.32184301E-01  1.63541699E-17
  2.60282486E-32  0.00000000E+00  1.92124074E-01  0.00000000E+00  0.00000000E+00
  1.63541699E-17  2.32184301E-01  7.44692912E-33  0.00000000E+00  1.35324814E-17
  1.92124074E-01  0.00000000E+00  0.00000000E+00  2.51474830E-32  5.85098831E-33
  2.32184301E-01  0.00000000E+00  5.68739191E-33  4.92422149E-33  1.92124074E-01
 -5.25202338E-02  4.97120047E-02  1.19322615E-01  1.19322615E-01  1.19322615E-01
  1.51006662E-01  9.87351291E-02  9.87351291E-02  9.87351291E-02  1.82499023E-01
  1.88038782E-02  1.16045035E-02  1.11585564E-01  1.11585564E-01  1.11585564E-01
  2.46057813E-02  9.23330002E-02  9.23330002E-02  9.23330002E-02  1.47683346E-01
  1.34465935E-01 -5.25202338E-02  4.97120047E-02 -1.19322615E-01 -1.19322615E-01
  1.19322615E-01  1.51006662E-01 -9.87351291E-02 -9.87351291E-02  9.87351291E-02
 -2.04661861E-02 -4.21213052E-02  1.82499023E-01  1.88038782E-02  1.16045035E-02
 -1.11585564E-01 -1.11585564E-01  1.11585564E-01  2.46057813E-02 -9.23330002E-02
 -9.23330002E-02  9.23330002E-02 -4.21213052E-02 -4.30315071E-02  1.47683346E-01
  1.34465935E-01 -5.25202338E-02  4.97120047E-02 -1.19322615E-01  1.19322615E-01
 -1.19322615E-01  1.51006662E-01 -9.87351291E-02  9.87351291E-02 -9.87351291E-02
 -2.04661861E-02 -4.21213052E-02 -2.04661861E-02 -4.21213052E-02  1.82499023E-01
  1.88038782E-02  1.16045035E-02 -1.11585564E-01  1.11585564E-01 -1.11585564E-01
  2.46057813E-02 -9.23330002E-02  9.23330002E-02 -9.23330002E-02 -4.21213052E-02
 -4.30315071E-02 -4.21213052E-02 -4.30315071E-02  1.47683346E-01  1.34465935E-01
 -5.25202338E-02  4.97120047E-02  1.19322615E-01 -1.19322615E-01 -1.19322615E-01
  1.51006662E-01  9.87351291E-02 -9.87351291E-02 -9.87351291E-02 -2.04661861E-02
 -4.21213052E-02 -2.04661861E-02 -4.21213052E-02 -2.04661861E-02 -4.21213052E-02
  1.82499023E-01  1.88038782E-02  1.16045035E-02  1.11585564E-01 -1.11585564E-01
 -1.11585564E-01  2.46057813E-02  9.23330002E-02 -9.23330002E-02 -9.23330002E-02
 -4.21213052E-02 -4.30315071E-02 -4.21213052E-02 -4.30315071E-02 -4.21213052E-02
 -4.30315071E-02  1.47683346E-01  1.34465935E-01
Grdnt Energy                               R     -3.997687654112752E+01
Grdnt NVar                                 I               14
Grdnt IGetFC                               I                0
Internal Forces                            R   N=          14
  4.44754203E-04  4.44754203E-04  4.44754203E-04  4.44754203E-04  3.09756682E-16
 -5.37615911E-16  5.33966652E-16  1.87928073E-17 -8.74849823E-16  5.50095480E-16
 -6.14592021E-17  1.70386703E-16 -5.42277577E-18 -1.75776202E-16
Internal Force Constants                   R   N=         105
  3.56566378E-01  8.05180612E-03  3.56566378E-01  8.05180612E-03  8.05180612E-03
  3.56566378E-01  8.05180612E-03  8.05180612E-03  8.05180612E-03  3.56566378E-01
 -1.13831189E-14 -1.13831189E-14 -1.13831189E-14 -1.13831189E-14  1.60000000E-01
 -4.13425444E-15 -4.13425444E-15 -4.13425444E-15 -4.13425444E-15  6.73899677E-28
  1.60000000E-01  1.37692128E-14  1.37692128E-14  1.37692128E-14  1.37692128E-14
 -1.73899461E-27 -7.82606443E-28  1.60000000E-01  8.41473059E-15  8.41473059E-15
  8.41473059E-15  8.41473059E-15 -1.13862588E-27 -5.05184162E-28  1.30957480E-27
  1.60000000E-01 -3.76081091E-15 -3.76081091E-15 -3.76081091E-15 -3.76081091E-15
  5.50855082E-28  2.40667403E-28 -6.36318782E-28 -4.13676489E-28  1.60000000E-01
 -1.69410608E-15 -1.69410608E-15 -1.69410608E-15 -1.69410608E-15  1.38078367E-28
  6.93759706E-29 -1.52812949E-28 -1.05134714E-28  5.34847607E-29  1.60000000E-01
  1.24840931E-14  1.24840931E-14  1.24840931E-14  1.24840931E-14 -1.57668931E-27
 -7.09563566E-28  1.80600255E-27  1.18734847E-27 -5.76929346E-28 -1.38550484E-28
  2.39270262E-03 -8.92230299E-15 -8.92230299E-15 -8.92230299E-15 -8.92230299E-15
  1.12911944E-27  5.07925551E-28 -1.29349818E-27 -8.50265090E-28  4.13069677E-28
  9.93724898E-29 -1.17277233E-27  2.39270262E-03 -1.22422016E-15 -1.22422016E-15
 -1.22422016E-15 -1.22422016E-15  1.54613942E-28  6.95815079E-29 -1.77100949E-28
 -1.16434244E-28  5.65750777E-29  1.35865933E-29 -1.60571615E-28  1.15004872E-28
  2.39270262E-03  7.73428309E-15  7.73428309E-15  7.73428309E-15  7.73428309E-15
 -9.79077443E-28 -4.40401572E-28  1.12163412E-27  7.37273813E-28 -3.58167527E-28
 -8.61876528E-29  1.01694883E-27 -7.28356624E-28 -9.97244452E-29  2.39270262E-03
Mulliken Charges                           R   N=           5
 -7.94374437E-01  1.98593609E-01  1.98593609E-01  1.98593609E-01  1.98593609E-01
Optimization MaxStp                        I              100
Optimization Job offset                    I                0
Optimization Num results per geometry      I                2
Optimization Num geometry variables        I               15
Opt point       1 Results for each geome   R   N=           4
 -3.99767526E+01  0.00000000E+00 -3.99768765E+01  0.00000000E+00
Opt point       1 Geometries               R   N=          30
  0.00000000E+00  0.00000000E+00  0.00000000E+00  1.18886072E+00  1.18886072E+00
  1.18886072E+00 -1.18886072E+00 -1.18886072E+00  1.18886072E+00 -1.18886072E+00
  1.18886072E+00 -1.18886072E+00  1.18886072E+00 -1.18886072E+00 -1.18886072E+00
  0.00000000E+00  0.00000000E+00  0.00000000E+00  1.18082046E+00  1.18082046E+00
  1.18082046E+00 -1.18082046E+00 -1.18082046E+00  1.18082046E+00 -1.18082046E+00
  1.18082046E+00 -1.18082046E+00  1.18082046E+00 -1.18082046E+00 -1.18082046E+00
Opt point       1 Gradient at each geome   R   N=          30
  1.63757896E-15 -7.21644966E-16 -3.38618023E-15  2.80432268E-03  2.80432268E-03
  2.80432268E-03 -2.80432268E-03 -2.80432268E-03  2.80432268E-03 -2.80432268E-03
  2.80432268E-03 -2.80432268E-03  2.80432268E-03 -2.80432268E-03 -2.80432268E-03
  6.66133815E-16  1.60982339E-15  2.22044605E-15 -2.56778959E-04 -2.56778959E-04
 -2.56778959E-04  2.56778959E-04  2.56778959E-04 -2.56778959E-04  2.56778959E-04
 -2.56778959E-04  2.56778959E-04 -2.56778959E-04  2.56778959E-04  2.56778959E-04
Optimization Number of geometries          I   N=           1
           2
ONIOM Charges                              I   N=          16