Ammonia molecule - openWFN example                                      
FOpt      RHF                                                         3-21G               
Number of atoms                            I                4
Info1-9                                    I   N=           9
          13          13           0           0           0         110
           2           1           2
Full Title                                 C   N=           3
Ammonia molecule - openWFN example  
Route                                      C   N=           2
# HF/3-21G Opt          
Charge                                     I                0
Multiplicity                               I                1
Number of electrons                        I               10
Number of alpha electrons                  I                5
Number of beta electrons                   I                5
Number of basis functions                  I               15
Number of independent functions            I               15
Number of point charges in /Mol/           I                0
Number of translation vectors              I                0
Atomic numbers                             I   N=           4
           7           1           1           1
Nuclear charges                            R   N=           4
  7.00000000E+00  1.00000000E+00  1.00000000E+00  1.00000000E+00
Current cartesian coordinates              R   N=          12
  1.66272962E-20  1.60359513E-01  9.48488498E-32 -1.81761089E+00 -3.73656316E-01
 -1.18965989E-27  9.08805447E-01 -3.74430138E-01  1.57416794E+00  9.08805447E-01
 -3.74430138E-01 -1.57416794E+00
Number of symbols in /Mol/                 I                0
Force Field                                I                0
Atom Types                                 C   N=           4
                                                
Int Atom Types                             I   N=           4
           0           0           0           0
MM charges                                 R   N=           4
  0.00000000E+00  0.00000000E+00  0.00000000E+00  0.00000000E+00
Integer atomic weights                     I   N=           4
          14           1           1           1
Real atomic weights                        R   N=           4
  1.40030740E+01  1.00782504E+00  1.00782504E+00  1.00782504E+00
Atom fragment info                         I   N=           4
           0           0           0           0
Atom residue num                           I   N=           4
           0           0           0           0
Nuclear spins                              I   N=           4
           2           1           1           1
Nuclear ZEff                               R   N=           4
 -4.55000000E+00 -1.00000000E+00 -1.00000000E+00 -1.00000000E+00
Nuclear ZNuc                               R   N=           4
  7.00000000E+00  1.00000000E+00  1.00000000E+00  1.00000000E+00
Nuclear QMom                               R   N=           4
  2.04400000E+00  0.00000000E+00  0.00000000E+00  0.00000000E+00
Nuclear GFac                               R   N=           4
  4.03761000E-01  2.79284600E+00  2.79284600E+00  2.79284600E+00
MicOpt                                     I   N=           4
          -1          -1          -1          -1
Number of residues                         I                0
Number of secondary structures             I                0
Redundant internal dimensions              I   N=           4
           7           3           3           1
Redundant internal coordinate indices      I   N=          28
           1           2           0           0           1           3
           0           0           1           4           0           0
           2           1           3           0           2           1
           4           0           3           1           4           0
           2           1           4           3
Redundant internal coordinates             R   N=           7
  1.89443455E+00  1.89471159E+00  1.89471159E+00  1.96128361E+00  1.96128361E+00
  1.96116584E+00 -2.23253462E+00
ZRed-IntVec                                I   N=           7
           0           0           0           0           0           0
           0
ZRed-FPVec                                 R   N=           7
  0.00000000E+00  0.00000000E+00  0.00000000E+00  0.00000000E+00  0.00000000E+00
  0.00000000E+00  0.00000000E+00
ZRed-Constraint1                           R   N=           7
  1.91310841E+00  1.91315083E+00  1.91315083E+00  1.86175683E+00  1.86175683E+00
  1.86179647E+00 -1.98481358E+00
ZRed-Constraint2                           R   N=           7
  0.00000000E+00  0.00000000E+00  0.00000000E+00  0.00000000E+00  0.00000000E+00
  0.00000000E+00  0.00000000E+00
SymInf integers                            I   N=          26
           2           2           1           1           1           1
           1          -1           0           0           0           0
           0           0           0           0           0           0
           0           0           0           0           0           0
           0           0
RotTr to input orientation                 R   N=          12
 -1.18255987E-13 -9.99999992E-01 -1.24989812E-04  7.40839697E-16  1.24989812E-04
 -9.99999992E-01  1.00000000E+00 -1.18256078E-13  7.26058898E-16 -1.08801856E-15
  7.84110667E-04  3.00448567E-01
Number of contracted shells                I                9
Number of primitive shells                 I               15
Pure/Cartesian d shells                    I                1
Pure/Cartesian f shells                    I                0
Highest angular momentum                   I                1
Largest degree of contraction              I                3
Shell types                                I   N=           9
           0          -1          -1           0           0           0
           0           0           0
Number of primitives per shell             I   N=           9
           3           2           1           2           1           2
           1           2           1
Shell to atom map                          I   N=           9
           1           1           1           2           2           3
           3           4           4
Primitive exponents                        R   N=          15
  2.42766000E+02  3.64851000E+01  7.81449000E+00  5.42522000E+00  1.14915000E+00
  2.83205000E-01  5.44717800E+00  8.24547240E-01  1.83191580E-01  5.44717800E+00
  8.24547240E-01  1.83191580E-01  5.44717800E+00  8.24547240E-01  1.83191580E-01
Contraction coefficients                   R   N=          15
  5.98657005E-02  3.52955003E-01  7.06513006E-01 -4.13300077E-01  1.22441727E+00
  1.00000000E+00  1.56284979E-01  9.04690877E-01  1.00000000E+00  1.56284979E-01
  9.04690877E-01  1.00000000E+00  1.56284979E-01  9.04690877E-01  1.00000000E+00
P(S=P) Contraction coefficients            R   N=          15
  0.00000000E+00  0.00000000E+00  0.00000000E+00  2.37972016E-01  8.58953059E-01
  1.00000000E+00  0.00000000E+00  0.00000000E+00  0.00000000E+00  0.00000000E+00
  0.00000000E+00  0.00000000E+00  0.00000000E+00  0.00000000E+00  0.00000000E+00
Coordinates of each shell                  R   N=          27
 -3.60162480E-20  1.60359513E-01 -7.65477488E-33 -3.60162480E-20  1.60359513E-01
 -7.65477488E-33 -3.60162480E-20  1.60359513E-01 -7.65477488E-33 -1.81761089E+00
 -3.73656316E-01 -1.06085746E-28 -1.81761089E+00 -3.73656316E-01 -1.06085746E-28
  9.08805447E-01 -3.74430138E-01  1.57416794E+00  9.08805447E-01 -3.74430138E-01
  1.57416794E+00  9.08805447E-01 -3.74430138E-01 -1.57416794E+00  9.08805447E-01
 -3.74430138E-01 -1.57416794E+00
Num ILSW                                   I              100
ILSW                                       I   N=         100
           0           1           0           1           2           0
           0           0           0           0           0          -1
           5           0           0           0           2           0
           0           0           1           0           1           0
           1           0           0           0           0           0
           0           0      100000           0          -1           0
           0           0           0           0           0           0
           0           0           0           1           0           0
           0 -2000000000           1           0           0           0
           0           0           4          52           0           0
           0           0           0           0           0           0
           0           0           0           0           0           1
           0           0           0           0           0           0
           0           0           0           0           0           0
           0           0           0           0           0           0
           0           0           0           0           0           0
           0           0           0           0
Num RLSW                                   I               52
RLSW                                       R   N=          52
  1.00000000E+00  1.00000000E+00  1.00000000E+00  1.00000000E+00  1.00000000E+00
  0.00000000E+00  0.00000000E+00  1.00000000E+00  0.00000000E+00  0.00000000E+00
  0.00000000E+00  0.00000000E+00  1.00000000E+00  0.00000000E+00  0.00000000E+00
  0.00000000E+00  0.00000000E+00  1.00000000E+00  0.00000000E+00  0.00000000E+00
  0.00000000E+00  0.00000000E+00  1.00000000E+00  0.00000000E+00  0.00000000E+00
  0.00000000E+00  0.00000000E+00  1.00000000E+00  0.00000000E+00  0.00000000E+00
  0.00000000E+00  0.00000000E+00  1.00000000E+00  0.00000000E+00  0.00000000E+00
  0.00000000E+00  0.00000000E+00  0.00000000E+00  1.00000000E+00  1.00000000E+00
  0.00000000E+00  1.00000000E+00  0.00000000E+00  0.00000000E+00  0.00000000E+00
  0.00000000E+00  0.00000000E+00  0.00000000E+00  0.00000000E+00  0.00000000E+00
  0.00000000E+00  0.00000000E+00
MxBond                                     I                3
NBond                                      I   N=           4
           3           1           1           1
IBond                                      I   N=          12
           2           3           4           1           0           0
           1           0           0           1           0           0
RBond                                      R   N=          12
  1.00000000E+00  1.00000000E+00  1.00000000E+00  1.00000000E+00  0.00000000E+00
  0.00000000E+00  1.00000000E+00  0.00000000E+00  0.00000000E+00  1.00000000E+00
  0.00000000E+00  0.00000000E+00
Virial Ratio                               R      2.002032362338172E+00
SCF Energy                                 R     -5.587220344538076E+01
Total Energy                               R     -5.587220344538076E+01
RMS Force                                  R      5.872743130256313E-05
RMS Density                                R      1.035465253671323E-09
Job Status                                 I                1
Nuclear derivative order                   I                1
External E-field                           R   N=          35
  0.00000000E+00  0.00000000E+00  0.00000000E+00  0.00000000E+00  0.00000000E+00
  0.00000000E+00  0.00000000E+00  0.00000000E+00  0.00000000E+00  0.00000000E+00
  0.00000000E+00  0.00000000E+00  0.00000000E+00  0.00000000E+00  0.00000000E+00
  0.00000000E+00  0.00000000E+00  0.00000000E+00  0.00000000E+00  0.00000000E+00
  0.00000000E+00  0.00000000E+00  0.00000000E+00  0.00000000E+00  0.00000000E+00
  0.00000000E+00  0.00000000E+00  0.00000000E+00  0.00000000E+00  0.00000000E+00
  0.00000000E+00  0.00000000E+00  0.00000000E+00  0.00000000E+00  0.00000000E+00
IOpCl                                      I                0
IROHF                                      I                0
Alpha Orbital Energies                     R   N=          15
 -1.54315397E+01 -1.12010542E+00 -6.20346180E-01 -6.20284823E-01 -3.88991271E-01
  2.75257584E-01  3.77346423E-01  3.77380017E-01  1.18639967E+00  1.18644541E+00
  1.28994668E+00  1.41270124E+00  1.59865977E+00  1.59871054E+00  2.57460195E+00
Alpha MO coefficients                      R   N=         225
  9.85466792E-01  9.79156913E-02 -9.19759610E-07 -2.85243114E-03  0.00000000E+00
 -4.94241532E-02  2.09215815E-06  5.39436177E-03  0.00000000E+00  1.17775133E-03
  8.80472094E-03  1.17903297E-03  8.80100327E-03  1.17903297E-03  8.80100327E-03
 -2.17449329E-01  1.99322796E-01 -4.61391288E-05 -6.52701357E-02  0.00000000E+00
  6.53803429E-01 -2.70131670E-05 -6.87221166E-02  0.00000000E+00  1.22045642E-01
  2.43023294E-02  1.21994140E-01  2.43075596E-02  1.21994140E-01  2.43075596E-02
 -8.81927286E-06 -1.84957089E-07  3.81386048E-01 -8.63312787E-05  0.00000000E+00
  5.78158920E-05  3.41828115E-01 -8.48954651E-05  0.00000000E+00 -2.67189327E-01
 -2.17727704E-01  1.33596920E-01  1.08894724E-01  1.33596920E-01  1.08894724E-01
  0.00000000E+00  0.00000000E+00  0.00000000E+00  0.00000000E+00  3.81366550E-01
  0.00000000E+00  0.00000000E+00  0.00000000E+00  3.41856589E-01  0.00000000E+00
  0.00000000E+00  2.31373712E-01  1.88610290E-01 -2.31373712E-01 -1.88610290E-01
 -5.85654291E-02  5.75178545E-02  1.20466790E-04  4.68672257E-01  0.00000000E+00
  2.57506626E-01  1.57405732E-04  6.18290293E-01  0.00000000E+00 -3.90207899E-02
 -3.68074524E-02 -3.90258823E-02 -3.68278792E-02 -3.90258823E-02 -3.68278792E-02
 -1.50935597E-01  3.63077750E-02  5.12274106E-05 -1.10401525E-01  0.00000000E+00
  1.59200157E+00  1.21704852E-04 -3.19475735E-01  0.00000000E+00 -3.51147537E-02
 -8.00983880E-01 -3.51396342E-02 -8.01241906E-01 -3.51396342E-02 -8.01241906E-01
  0.00000000E+00  0.00000000E+00  0.00000000E+00  0.00000000E+00 -2.93897577E-01
  0.00000000E+00  0.00000000E+00  0.00000000E+00 -1.02455859E+00  0.00000000E+00
  0.00000000E+00  3.25748389E-02  1.29690138E+00 -3.25748389E-02 -1.29690138E+00
  3.15993677E-05 -5.60224857E-07  2.93878641E-01 -6.15793988E-05  0.00000000E+00
 -5.00068164E-04  1.02463612E+00 -2.01706138E-04  0.00000000E+00  3.75599971E-02
  1.49797091E+00 -1.87927765E-02 -7.48667850E-01 -1.87927765E-02 -7.48667850E-01
  0.00000000E+00  0.00000000E+00  0.00000000E+00  0.00000000E+00  7.29002486E-02
  0.00000000E+00  0.00000000E+00  0.00000000E+00 -7.90509940E-01  0.00000000E+00
  0.00000000E+00  9.45385170E-01 -4.55286913E-01 -9.45385170E-01  4.55286913E-01
 -1.98690345E-06  7.30297058E-05 -7.30026114E-02 -7.84995967E-05  0.00000000E+00
 -2.76119657E-04  7.91031350E-01 -8.15054637E-05  0.00000000E+00  1.09154766E+00
 -5.25151976E-01 -5.45917220E-01  2.62786707E-01 -5.45917220E-01  2.62786707E-01
  1.00719346E-01 -1.04041377E-01 -1.90935899E-04  6.70218884E-02  0.00000000E+00
 -2.56683359E-01  5.77846440E-04  2.47387974E-01  0.00000000E+00  7.94397899E-01
 -3.36270118E-01  7.94191382E-01 -3.36601760E-01  7.94191382E-01 -3.36601760E-01
 -2.01500507E-02  2.60294045E-02  2.65551346E-04  1.06276422E+00  0.00000000E+00
  2.09201960E-01 -1.91498411E-04 -1.01874523E+00  0.00000000E+00 -2.40428833E-02
 -1.13751708E-01 -2.42181597E-02 -1.13642705E-01 -2.42181597E-02 -1.13642705E-01
  0.00000000E+00  0.00000000E+00  0.00000000E+00  0.00000000E+00 -1.11812792E+00
  0.00000000E+00  0.00000000E+00  0.00000000E+00  1.41386574E+00  0.00000000E+00
  0.00000000E+00  1.63295138E-01 -8.01205069E-01 -1.63295138E-01  8.01205069E-01
 -2.05779433E-05  3.10877760E-05 -1.11813380E+00  2.74463409E-04  0.00000000E+00
 -2.21385483E-05  1.41383986E+00 -4.22421084E-04  0.00000000E+00 -1.88945784E-01
  9.25464832E-01  9.41827341E-02 -4.62594603E-01  9.41827341E-02 -4.62594603E-01
  3.35641444E-02 -1.78942718E+00  6.60292714E-06  7.71534506E-02  0.00000000E+00
  2.57159202E+00 -1.20933850E-04 -3.30375818E-01  0.00000000E+00 -1.98176851E-01
 -4.56863677E-01 -1.98259200E-01 -4.56626670E-01 -1.98259200E-01 -4.56626670E-01
Orthonormal basis                          R   N=         225
  5.13577353E-02  1.84384351E-01 -1.54668998E-05 -3.30415575E-02  0.00000000E+00
  2.57465458E-01 -2.10526855E-05 -6.21855009E-02  0.00000000E+00  1.26283874E-01
  2.00380016E-01  1.26261443E-01  2.00362170E-01  1.26261443E-01  2.00362170E-01
 -3.60024655E-06 -9.20672478E-06  2.71076347E-01 -6.95720579E-05  0.00000000E+00
  9.66322091E-07  3.98318175E-01 -1.09456865E-04  0.00000000E+00 -2.87263644E-01
 -2.20357636E-01  1.43644315E-01  1.10209582E-01  1.43644315E-01  1.10209582E-01
  1.01295865E-01  1.72247641E-01  1.51471638E-04  5.26018322E-01  0.00000000E+00
  1.45734833E-01  1.48718898E-04  5.40849495E-01  0.00000000E+00 -6.39361747E-02
  1.25137235E-03 -6.39327098E-02  1.24154070E-03 -6.39327098E-02  1.24154070E-03
  8.71540807E-01  2.67955372E-01  4.70441778E-05 -2.12771027E-01  0.00000000E+00
  3.76246695E-02  3.53582848E-06 -9.27733046E-02  0.00000000E+00 -1.17912743E-01
 -1.19715626E-01 -1.17973324E-01 -1.19742092E-01 -1.17973324E-01 -1.19742092E-01
 -4.65374221E-04  4.80762482E-04  9.82076181E-01 -4.89473000E-04  0.00000000E+00
  1.64629498E-04 -3.83949033E-02  3.67998815E-05  0.00000000E+00  3.69028542E-01
  2.77710056E-01 -1.84778128E-01 -1.38987882E-01 -1.84778128E-01 -1.38987882E-01
 -5.15780373E-01  8.20399900E-01 -8.25148414E-04 -4.00722471E-01  0.00000000E+00
  2.28147163E-01  1.30706718E-04  8.37149424E-02  0.00000000E+00 -2.28846133E-01
 -1.74825277E-01 -2.28492363E-01 -1.74493109E-01 -2.28492363E-01 -1.74493109E-01
  7.10664006E-02 -4.62276061E-01 -2.22329983E-04 -9.27774360E-01  0.00000000E+00
  1.12850290E-01  2.35194300E-04  9.96790253E-01  0.00000000E+00 -2.25293721E-02
  1.53721966E-01 -2.25186975E-02  1.53699614E-01 -2.25186975E-02  1.53699614E-01
  2.71352157E-02  2.53266735E-01  6.79068267E-05 -1.08725068E-01  0.00000000E+00
 -5.52753984E-02  1.24052117E-04  3.03893282E-01  0.00000000E+00  7.48798878E-01
 -5.02706732E-01  7.48710766E-01 -5.02716280E-01  7.48710766E-01 -5.02716280E-01
  1.47982432E-05 -1.18584593E-04 -3.10425380E-01  1.18262667E-04  0.00000000E+00
 -2.58186507E-05  8.62555648E-01 -2.08926448E-04  0.00000000E+00  1.03191797E+00
 -5.60339949E-01 -5.15968173E-01  2.80222873E-01 -5.15968173E-01  2.80222873E-01
 -1.47485252E-05 -3.05199986E-04 -5.94181772E-01  1.85508153E-04  0.00000000E+00
  4.25090769E-04  1.69919557E+00 -5.37706669E-04  0.00000000E+00 -1.28132191E-01
  1.72707359E+00  6.40218340E-02 -8.63711256E-01  6.40218340E-02 -8.63711256E-01
 -1.09632228E-01 -1.47686457E+00  1.30369035E-04  1.40709806E-01  0.00000000E+00
  3.09784334E+00 -5.76271030E-04 -5.47127002E-01  0.00000000E+00 -2.02628369E-01
 -7.86189023E-01 -2.02590597E-01 -7.85419119E-01 -2.02590597E-01 -7.85419119E-01
  0.00000000E+00  0.00000000E+00  0.00000000E+00  0.00000000E+00  2.71072932E-01
  0.00000000E+00  0.00000000E+00  0.00000000E+00  3.98327986E-01  0.00000000E+00
  0.00000000E+00  2.48784382E-01  1.90866088E-01 -2.48784382E-01 -1.90866088E-01
  0.00000000E+00  0.00000000E+00  0.00000000E+00  0.00000000E+00  9.81994986E-01
  0.00000000E+00  0.00000000E+00  0.00000000E+00 -3.82732197E-02  0.00000000E+00
  0.00000000E+00 -3.19801043E-01 -2.40545496E-01  3.19801043E-01  2.40545496E-01
  0.00000000E+00  0.00000000E+00  0.00000000E+00  0.00000000E+00  3.10672038E-01
  0.00000000E+00  0.00000000E+00  0.00000000E+00 -8.62611349E-01  0.00000000E+00
  0.00000000E+00  8.93590508E-01 -4.85249278E-01 -8.93590508E-01  4.85249278E-01
  0.00000000E+00  0.00000000E+00  0.00000000E+00  0.00000000E+00  5.94162379E-01
  0.00000000E+00  0.00000000E+00  0.00000000E+00 -1.69890558E+00  0.00000000E+00
  0.00000000E+00 -1.11098899E-01  1.49565501E+00  1.11098899E-01 -1.49565501E+00
Total SCF Density                          R   N=         120
  2.04371784E+00  9.95629921E-02  1.05250726E-01 -2.58441365E-06 -4.85637563E-06
  2.90910669E-01 -3.21320401E-02  2.73357980E-02  5.30960555E-05  4.47844038E-01
 -7.85918710E-35 -1.47682105E-34  2.50351207E-29  1.59407953E-32  2.90880890E-01
 -4.11911930E-01  2.80579512E-01  4.59014179E-05  1.56306694E-01  1.38759080E-33
  9.92422673E-01 -8.59492449E-06  7.62186319E-06  2.60736989E-01  9.20368534E-05
  2.24403913E-29  8.50628241E-05  2.33692972E-01 -3.19017861E-02  4.47860787E-02
  9.05426358E-05  5.88491259E-01  2.72226494E-33  2.28032950E-01  1.40340935E-04
  7.74069445E-01 -2.61371161E-34  2.31780423E-34  2.24403913E-29  1.56407794E-32
  2.60745336E-01  2.58675561E-33  2.01145891E-29  1.57792654E-32  2.33731855E-01
 -4.61809649E-02  4.43949126E-02 -2.03825229E-01 -5.24683799E-02 -6.19831354E-30
  1.39344180E-01 -1.82684521E-01 -6.49687482E-02 -5.55542583E-30  1.75618569E-01
  1.10995986E-02  7.17816634E-03 -1.66087744E-01 -3.76863326E-02 -5.05071878E-30
  1.19260589E-02 -1.48863765E-01 -4.87236362E-02 -4.52693856E-30  1.25174275E-01
  9.88565355E-02 -4.61625136E-02  4.43738985E-02  1.01883340E-01 -5.25356382E-02
  1.76476389E-01  1.39320431E-01  9.13154947E-02 -6.50360028E-02  1.58193256E-01
 -3.85652171E-02 -4.93523687E-02  1.75577823E-01  1.10866282E-02  7.17705266E-03
  8.30507246E-02 -3.77625366E-02  1.43859311E-01  1.19605133E-02  7.44336862E-02
 -4.88051122E-02  1.28955341E-01 -4.93629159E-02 -4.33712741E-02  1.25200919E-01
  9.89130202E-02 -4.61625136E-02  4.43738985E-02  1.01883340E-01 -5.25356382E-02
 -1.76476389E-01  1.39320431E-01  9.13154947E-02 -6.50360028E-02 -1.58193256E-01
 -3.85652171E-02 -4.93523687E-02 -3.85573558E-02 -4.93569325E-02  1.75577823E-01
  1.10866282E-02  7.17705266E-03  8.30507246E-02 -3.77625366E-02 -1.43859311E-01
  1.19605133E-02  7.44336862E-02 -4.88051122E-02 -1.28955341E-01 -4.93629159E-02
 -4.33712741E-02 -4.93569325E-02 -4.33823454E-02  1.25200919E-01  9.89130202E-02
Grdnt Energy                               R     -5.587220344538076E+01
Grdnt NVar                                 I                7
Grdnt IGetFC                               I                0
Internal Forces                            R   N=           7
  1.35723190E-04 -5.24963236E-07 -5.24963237E-07 -1.87016181E-06  1.89243028E-05
  3.08381308E-05 -3.93481887E-05
Internal Force Constants                   R   N=          28
  4.78248202E-01  1.74340704E-02  4.75379584E-01  1.74340704E-02  1.96423585E-02
  4.75379584E-01  1.11111224E-02  1.01373583E-02  1.01373583E-02  1.16127672E-01
  2.04949469E-02  1.90694376E-02  1.90694376E-02 -4.15620146E-02  1.25718175E-01
  1.16969490E-02  2.66394002E-02  2.66394002E-02 -4.87757597E-02 -4.08345288E-02
  1.25750495E-01 -8.41843880E-03 -1.11797646E-02 -1.11797646E-02  3.29082605E-03
 -4.89074266E-03 -8.25211003E-03  2.20611437E-02
Mulliken Charges                           R   N=           4
 -8.76134494E-01  2.92071220E-01  2.92031637E-01  2.92031637E-01
Optimization MaxStp                        I              100
Optimization Job offset                    I                0
Optimization Num results per geometry      I                2
Optimization Num geometry variables        I               12
Opt point       1 Results for each geome   R   N=           8
 -5.58704614E+01  0.00000000E+00 -5.58718943E+01  0.00000000E+00 -5.58722012E+01
  0.00000000E+00 -5.58722034E+01  0.00000000E+00
Opt point       1 Geometries               R   N=          48
  8.67023541E-35  2.16335847E-01  2.10075051E-45 -1.77199619E+00 -5.04783642E-01
  4.50990129E-29  8.85998094E-01 -5.04783642E-01  1.53464659E+00  8.85998094E-01
 -5.04783642E-01 -1.53464659E+00 -1.03320341E-18  1.83877702E-01  3.94472558E-31
 -1.80703519E+00 -4.40193129E-01 -4.21792182E-28  9.03517594E-01 -4.23475394E-01
  1.56913174E+00  9.03517594E-01 -4.23475394E-01 -1.56913174E+00 -1.39231655E-20
  1.62145138E-01 -1.90081534E-31 -1.81735725E+00 -3.74361619E-01 -9.67305136E-28
  9.08678623E-01 -3.80327173E-01  1.57191145E+00  9.08678623E-01 -3.80327173E-01
 -1.57191145E+00 -3.60162480E-20  1.60359513E-01 -7.65477488E-33 -1.81761089E+00
 -3.73656316E-01 -1.06085746E-28  9.08805447E-01 -3.74430138E-01  1.57416794E+00
  9.08805447E-01 -3.74430138E-01 -1.57416794E+00
Opt point       1 Gradient at each geome   R   N=          48
 -1.37473155E-05  1.95491148E-02  4.44089210E-16  1.99077026E-03 -6.51264194E-03
  2.77555756E-17 -9.88511470E-04 -6.51823645E-03 -1.70403694E-03 -9.88511470E-04
 -6.51823645E-03  1.70403694E-03  1.52118504E-03  9.43291789E-03  1.55431223E-15
 -4.07039621E-03 -3.51026133E-03  1.38777878E-16  1.27460558E-03 -2.96132828E-03
  3.32809110E-03  1.27460558E-03 -2.96132828E-03 -3.32809110E-03 -3.14413378E-04
  4.04918228E-04 -8.39193230E-32  1.16461200E-04 -7.26609743E-05  3.10549750E-32
  9.89760892E-05 -1.66128627E-04 -2.82886598E-04  9.89760892E-05 -1.66128627E-04
  2.82886598E-04 -1.39714277E-04  3.67859251E-05 -4.44089210E-16  1.37022061E-04
  1.51042524E-05 -1.38777878E-17  1.34610802E-06 -2.59450888E-05 -8.95956539E-06
  1.34610802E-06 -2.59450888E-05  8.95956539E-06
Optimization Number of geometries          I   N=           1
           4
ONIOM Charges                              I   N=          16
           0           0           0           0           0           0
           0           0           0           0           0           0
           0           0           0           0
ONIOM Multiplicities                       I   N=          16
           1           0           0           0           0           0
           0           0           0           0           0           0
           0           0           0           0
Atom Layers                                I   N=           4
           1           1           1           1
Atom Modifiers                             I   N=           4
           0           0           0           0
Force Field                                I                0
Atom Modified Types                        C   N=           4
                                                
Int Atom Modified Types                    I   N=           4
           0           0           0           0
Link Atoms                                 I   N=           4
           0           0           0           0
Atom Modified MM Charges                   R   N=           4
  0.00000000E+00  0.00000000E+00  0.00000000E+00  0.00000000E+00
Link Distances                             R   N=          16
  0.00000000E+00  0.00000000E+00  0.00000000E+00  0.00000000E+00  0.00000000E+00
  0.00000000E+00  0.00000000E+00  0.00000000E+00  0.00000000E+00  0.00000000E+00
  0.00000000E+00  0.00000000E+00  0.00000000E+00  0.00000000E+00  0.00000000E+00
  0.00000000E+00
Cartesian Gradient                         R   N=          12
 -1.39714277E-04  3.67859251E-05 -5.14212235E-16  1.37022061E-04  1.51042524E-05
  5.48856364E-17  1.34610802E-06 -2.59450888E-05 -8.95956539E-06  1.34610802E-06
 -2.59450888E-05  8.95956539E-06
Nonadiabatic coupling                      R   N=          12
 -0.00000000E+00  0.00000000E+00  0.00000000E+00 -0.00000000E+00  0.00000000E+00
  0.00000000E+00 -0.00000000E+00  0.00000000E+00  0.00000000E+00 -0.00000000E+00
  0.00000000E+00  0.00000000E+00
Dipole Moment                              R   N=           3
 -1.49778198E-04 -6.89961993E-01  5.75685588E-17
Quadrupole Moment                          R   N=           6
  7.33855044E-01 -1.46767734E+00  7.33822298E-01 -6.24444637E-04  3.43181448E-17
  1.26277336E-17
QEq coupling tensors                       R   N=          24
 -6.15115307E-01  5.84670599E-04  1.23044097E+00  3.13133365E-15 -5.25792372E-16
 -6.15325663E-01 -4.34979133E-01 -1.92556593E-01  2.29214114E-01 -4.71887065E-18
 -6.50219410E-19  2.05765019E-01  4.55789809E-02  9.63371619E-02  2.28905638E-01
 -2.77153759E-01  1.66833257E-01 -2.74484619E-01  4.55789809E-02  9.63371619E-02
  2.28905638E-01  2.77153759E-01 -1.66833257E-01 -2.74484619E-01
ClPar MaxAn                                I              200
ClPar NIntPar                              I                4
ClPar NRealPar                             I               16
ClPar NBits                                I               30
ClPar LenBitVec                            I                1
ClPar Read BitMap                          I   N=         200
           0           0           0           0           0           0
           0           0           0           0           0           0
           0           0           0           0           0           0
           0           0           0           0           0           0
           0           0           0           0           0           0
           0           0           0           0           0           0
           0           0           0           0           0           0
           0           0           0           0           0           0
           0           0           0           0           0           0
           0           0           0           0           0           0
           0           0           0           0           0           0
           0           0           0           0           0           0
           0           0           0           0           0           0
           0           0           0           0           0           0
           0           0           0           0           0           0
           0           0           0           0           0           0
           0           0           0           0           0           0
           0           0           0           0           0           0
           0           0           0           0           0           0
           0           0           0           0           0           0
           0           0           0           0           0           0
           0           0           0           0           0           0
           0           0           0           0           0           0
           0           0           0           0           0           0
           0           0           0           0           0           0
           0           0           0           0           0           0